! Sonnet Data File
! From: emgraph Version : 12.53-Lite
! From Emgraph Data: sf2049E
! Data File Written: 06/20/2012 10:58:03
!< HDATE 06/20/2012 10:57:07
!< MDATE 06/20/2012 10:57:07
# HZ S RI R 50.00000
 765000000 0.024887 -0.94660 -2.33e-4 4.776e-4 -2.23e-4 4.545e-4 -3.46e-3 -0.94476
 765375000 0.023176 -0.94697 -2.30e-4 4.954e-4 -1.89e-4 4.743e-4 -5.98e-3 -0.94459
 765750000 0.022160 -0.94733 -2.12e-4 4.865e-4 -1.78e-4 5.096e-4 -6.48e-3 -0.94458
 766125000 0.020689 -0.94740 -2.26e-4 4.933e-4 -1.97e-4 5.399e-4 -7.45e-3 -0.94410
 766500000 0.019356 -0.94775 -1.80e-4 4.845e-4 -1.45e-4 4.994e-4 -8.19e-3 -0.94434
 766875000 0.018737 -0.94739 -1.98e-4 4.949e-4 -1.42e-4 4.854e-4 -9.40e-3 -0.94348
 767250000 0.017530 -0.94745 -1.46e-4 4.962e-4 -1.73e-4 5.114e-4 -0.01074 -0.94348
 767625000 0.016366 -0.94709 -1.51e-4 5.477e-4 -1.66e-4 4.868e-4 -0.01235 -0.94336
 768000000 0.015444 -0.94733 -1.68e-4 5.090e-4 -1.57e-4 5.189e-4 -0.01183 -0.94361
 768375000 0.014907 -0.94789 -1.66e-4 5.128e-4 -1.93e-4 4.619e-4 -0.01356 -0.94421
 768750000 0.013252 -0.94782 -1.31e-4 4.664e-4 -1.41e-4 4.687e-4 -0.01441 -0.94348
 769125000 0.012156 -0.94758 -1.61e-4 5.263e-4 -1.40e-4 4.457e-4 -0.01563 -0.94445
 769500000 0.011030 -0.94746 -1.13e-4 5.353e-4 -1.81e-4 5.165e-4 -0.01685 -0.94433
 769875000 0.009589 -0.94720 -1.43e-4 4.910e-4 -1.64e-4 5.005e-4 -0.01807 -0.94433
 770250000 0.008965 -0.94763 -1.08e-4 5.317e-4 -1.63e-4 5.189e-4 -0.01855 -0.94471
 770625000 0.008230 -0.94684 -1.36e-4 5.045e-4 -8.70e-5 5.420e-4 -0.02026 -0.94458
 771000000 0.007265 -0.94818 -7.53e-5 4.935e-4 -6.22e-5 4.802e-4 -0.02149 -0.94531
 771375000 0.006275 -0.94855 -6.43e-5 4.987e-4 -6.55e-5 5.186e-4 -0.02257 -0.94445
 771750000 0.004998 -0.94825 -8.43e-5 4.718e-4 -4.90e-5 4.654e-4 -0.02404 -0.94507
 772125000 0.004277 -0.94977 -7.06e-5 4.444e-4 -4.73e-5 4.497e-4 -0.02502 -0.94544
 772500000 0.002683 -0.94898 -4.94e-5 4.551e-4 -7.50e-5 4.704e-4 -0.02648 -0.94519
 772875000 0.001591 -0.94940 -7.15e-5 4.188e-4 -7.11e-5 4.420e-4 -0.02735 -0.94434
 773250000 -1.16e-4 -0.94940 -4.23e-5 4.722e-4 -8.28e-5 4.273e-4 -0.02893 -0.94458
 773625000 -1.71e-3 -0.94952 -8.06e-5 4.407e-4 -5.27e-5 4.242e-4 -0.03040 -0.94518
 774000000 -2.93e-3 -0.94916 -6.68e-5 4.335e-4 -5.05e-5 4.407e-4 -0.03186 -0.94446
 774375000 -3.96e-3 -0.94916 -1.08e-4 4.037e-4 -7.94e-5 4.016e-4 -0.03284 -0.94519
 774750000 -5.56e-3 -0.94825 -6.20e-5 3.998e-4 -5.63e-5 4.570e-4 -0.03429 -0.94494
 775125000 -7.32e-3 -0.94922 -2.70e-5 4.508e-4 -6.85e-5 4.075e-4 -0.03576 -0.94458
 775500000 -7.32e-3 -0.94941 -5.39e-5 3.997e-4 -4.31e-5 3.954e-4 -0.03710 -0.94457
 775875000 -8.35e-3 -0.94934 -7.19e-5 4.414e-4 -4.92e-5 4.484e-4 -0.03843 -0.94458
 776250000 -9.28e-3 -0.94989 -8.26e-6 4.364e-4 2.561e-5 3.732e-4 -0.03929 -0.94494
 776625000 -0.01159 -0.94989 3.567e-7 3.784e-4 -8.49e-6 3.870e-4 -0.04040 -0.94421
 777000000 -0.01319 -0.95062 3.567e-5 3.744e-4 -1.64e-5 3.808e-4 -0.04224 -0.94471
 777375000 -0.01478 -0.95038 -2.43e-5 3.591e-4 -6.59e-5 3.423e-4 -0.04381 -0.94446
 777750000 -0.01599 -0.95038 5.568e-7 3.890e-4 -2.20e-5 3.169e-4 -0.04491 -0.94470
 778125000 -0.01751 -0.95014 -8.26e-5 2.503e-4 -3.01e-7 3.315e-4 -0.04614 -0.94519
 778500000 -0.01849 -0.94977 -4.14e-5 2.671e-4 -7.80e-5 3.434e-4 -0.04808 -0.94446
 778875000 -0.02019 -0.94983 -9.24e-5 3.052e-4 -3.01e-5 3.100e-4 -0.04931 -0.94494
 779250000 -0.02086 -0.94983 -9.74e-5 3.318e-4 -8.48e-5 3.146e-4 -0.05088 -0.94470
 779625000 -0.02313 -0.94977 -1.01e-4 2.821e-4 -1.01e-4 2.771e-4 -0.05235 -0.94470
 780000000 -0.02386 -0.94989 -1.12e-4 2.623e-4 -1.15e-4 2.832e-4 -0.05371 -0.94495
 780375000 -0.02575 -0.94976 -1.26e-4 2.662e-4 -1.43e-4 3.079e-4 -0.05543 -0.94470
 780750000 -0.02716 -0.95081 -1.27e-4 3.119e-4 -7.06e-5 2.910e-4 -0.05712 -0.94507
 781125000 -0.02892 -0.95038 -8.74e-5 2.621e-4 -1.67e-4 2.347e-4 -0.05822 -0.94458
 781500000 -0.03014 -0.94965 -1.25e-4 3.324e-4 -1.39e-4 2.813e-4 -0.05957 -0.94446
 781875000 -0.03187 -0.94922 -1.59e-4 2.619e-4 -1.10e-4 2.702e-4 -0.06139 -0.94373
 782250000 -0.03289 -0.94947 -7.10e-5 2.872e-4 -1.53e-4 2.947e-4 -0.06261 -0.94434
 782625000 -0.03490 -0.94941 -1.82e-4 2.692e-4 -1.62e-4 2.814e-4 -0.06468 -0.94446
 783000000 -0.03645 -0.94918 -1.67e-4 2.825e-4 -1.55e-4 2.790e-4 -0.06573 -0.94355
 783375000 -0.03842 -0.94955 -1.69e-4 2.594e-4 -1.40e-4 2.854e-4 -0.06720 -0.94300
 783750000 -0.03964 -0.94965 -1.78e-4 2.643e-4 -1.92e-4 3.248e-4 -0.06932 -0.94354
 784125000 -0.04108 -0.94897 -1.97e-4 2.615e-4 -1.81e-4 2.791e-4 -0.07117 -0.94348
 784500000 -0.04340 -0.94874 -1.77e-4 2.948e-4 -1.97e-4 2.903e-4 -0.07297 -0.94296
 784875000 -0.04460 -0.94925 -2.56e-4 2.907e-4 -2.03e-4 3.279e-4 -0.07375 -0.94278
 785250000 -0.04578 -0.94861 -1.92e-4 2.873e-4 -1.92e-4 3.298e-4 -0.07545 -0.94250
 785625000 -0.04754 -0.94833 -1.95e-4 2.646e-4 -2.39e-4 2.561e-4 -0.07742 -0.94205
 786000000 -0.04892 -0.94827 -2.04e-4 2.942e-4 -2.35e-4 2.421e-4 -0.07831 -0.94183
 786375000 -0.05101 -0.94806 -2.80e-4 3.216e-4 -2.24e-4 2.837e-4 -0.08025 -0.94187
 786750000 -0.05212 -0.94761 -2.64e-4 3.705e-4 -2.29e-4 2.935e-4 -0.08213 -0.94155
 787125000 -0.05290 -0.94736 -2.33e-4 2.951e-4 -2.37e-4 3.423e-4 -0.08358 -0.94155
 787500000 -0.05513 -0.94699 -2.33e-4 3.118e-4 -2.47e-4 3.410e-4 -0.08593 -0.94071
 787875000 -0.05697 -0.94656 -2.46e-4 3.609e-4 -2.11e-4 3.526e-4 -0.08659 -0.93970
 788250000 -0.05786 -0.94629 -2.32e-4 3.101e-4 -2.35e-4 3.754e-4 -0.08874 -0.94013
 788625000 -0.06050 -0.94583 -2.51e-4 2.996e-4 -2.20e-4 3.268e-4 -0.09045 -0.94007
 789000000 -0.06130 -0.94590 -2.38e-4 3.295e-4 -2.43e-4 3.420e-4 -0.09188 -0.93888
 789375000 -0.06303 -0.94525 -2.32e-4 3.756e-4 -2.59e-4 3.234e-4 -0.09335 -0.93906
 789750000 -0.06464 -0.94494 -2.29e-4 3.720e-4 -2.37e-4 3.480e-4 -0.09523 -0.93772
 790125000 -0.06660 -0.94394 -2.93e-4 3.693e-4 -2.08e-4 4.383e-4 -0.09728 -0.93702
 790500000 -0.06792 -0.94434 -2.53e-4 4.223e-4 -2.78e-4 3.250e-4 -0.09809 -0.93689
 790875000 -0.06951 -0.94386 -2.51e-4 4.038e-4 -2.61e-4 4.057e-4 -0.09992 -0.93555
 791250000 -0.07147 -0.94305 -2.19e-4 3.938e-4 -2.53e-4 4.346e-4 -0.10055 -0.93558
 791625000 -0.07242 -0.94265 -2.43e-4 3.968e-4 -2.49e-4 4.401e-4 -0.10237 -0.93503
 792000000 -0.07423 -0.94189 -2.44e-4 4.235e-4 -2.36e-4 4.267e-4 -0.10383 -0.93484
 792375000 -0.07574 -0.94153 -2.23e-4 3.704e-4 -1.99e-4 3.725e-4 -0.10506 -0.93473
 792750000 -0.07673 -0.94110 -2.44e-4 4.221e-4 -2.15e-4 4.070e-4 -0.10662 -0.93476
 793125000 -0.07849 -0.94080 -1.82e-4 4.296e-4 -1.99e-4 4.351e-4 -0.10810 -0.93429
 793500000 -0.07986 -0.93985 -2.05e-4 4.418e-4 -2.01e-4 3.961e-4 -0.11009 -0.93408
 793875000 -0.08215 -0.93951 -2.34e-4 4.285e-4 -2.02e-4 4.335e-4 -0.11238 -0.93357
 794250000 -0.08454 -0.93872 -1.94e-4 4.570e-4 -1.70e-4 4.552e-4 -0.11422 -0.93253
 794625000 -0.08608 -0.93735 -2.13e-4 3.499e-4 -2.23e-4 3.691e-4 -0.11571 -0.93177
 795000000 -0.08708 -0.93564 -2.32e-4 3.856e-4 -2.15e-4 3.876e-4 -0.11765 -0.93051
 795375000 -0.08728 -0.93359 -2.21e-4 4.434e-4 -2.28e-4 4.436e-4 -0.11896 -0.92917
 795750000 -0.08648 -0.93311 -2.06e-4 4.275e-4 -1.91e-4 4.432e-4 -0.11919 -0.92865
 796125000 -0.08615 -0.93454 -1.97e-4 4.858e-4 -2.24e-4 4.411e-4 -0.11940 -0.92783
 796500000 -0.08716 -0.93549 -1.64e-4 5.127e-4 -1.77e-4 4.655e-4 -0.11983 -0.92850
 796875000 -0.08963 -0.93735 -1.46e-4 4.193e-4 -1.52e-4 4.449e-4 -0.12144 -0.92859
 797250000 -0.09121 -0.93795 -1.46e-4 4.330e-4 -1.38e-4 4.132e-4 -0.12331 -0.92850
 797625000 -0.09462 -0.93851 -1.57e-4 4.052e-4 -1.47e-4 3.934e-4 -0.12498 -0.92939
 798000000 -0.09670 -0.93784 -1.25e-4 4.495e-4 -1.53e-4 4.667e-4 -0.12749 -0.92902
 798375000 -0.09933 -0.93765 -1.48e-4 4.245e-4 -1.32e-4 4.423e-4 -0.12910 -0.92835
 798750000 -0.10223 -0.93664 -1.53e-4 4.475e-4 -1.53e-4 3.865e-4 -0.13171 -0.92792
 799125000 -0.10564 -0.93549 -1.34e-4 3.649e-4 -1.48e-4 4.666e-4 -0.13403 -0.92670
 799500000 -0.10825 -0.93445 -1.50e-4 4.010e-4 -1.50e-4 4.121e-4 -0.13549 -0.92603
 799875000 -0.10982 -0.93235 -1.18e-4 3.719e-4 -9.29e-5 3.931e-4 -0.13826 -0.92499
 800250000 -0.11164 -0.93021 -1.39e-4 4.475e-4 -1.12e-4 3.840e-4 -0.14051 -0.92297
 800625000 -0.11291 -0.92724 -1.26e-4 3.943e-4 -9.95e-5 4.375e-4 -0.14135 -0.92139
 801000000 -0.11291 -0.92341 -1.34e-4 4.423e-4 -1.15e-4 3.814e-4 -0.14221 -0.91967
 801375000 -0.11017 -0.92169 -1.72e-4 4.212e-4 -1.17e-4 4.567e-4 -0.14264 -0.91833
 801750000 -0.10914 -0.92239 -7.04e-5 4.043e-4 -5.25e-5 4.210e-4 -0.14321 -0.91779
 802125000 -0.10942 -0.92450 -1.16e-4 3.753e-4 -1.04e-4 4.225e-4 -0.14344 -0.91711
 802500000 -0.11017 -0.92600 -6.76e-5 4.014e-4 -6.50e-5 3.893e-4 -0.14387 -0.91736
 802875000 -0.11239 -0.92642 -7.08e-5 3.491e-4 -8.47e-5 3.969e-4 -0.14466 -0.91809
 803250000 -0.11513 -0.92722 -1.15e-4 3.289e-4 -7.52e-5 3.095e-4 -0.14593 -0.91803
 803625000 -0.11717 -0.92721 -9.13e-5 3.010e-4 -1.09e-4 3.065e-4 -0.14824 -0.91840
 804000000 -0.11970 -0.92557 -1.17e-4 3.017e-4 -1.25e-4 3.316e-4 -0.15101 -0.91785
 804375000 -0.12318 -0.92526 -1.43e-4 2.917e-4 -9.14e-5 2.929e-4 -0.15233 -0.91577
 804750000 -0.12448 -0.92294 -1.08e-4 2.843e-4 -1.22e-4 2.405e-4 -0.15440 -0.91668
 805125000 -0.12579 -0.92004 -8.85e-5 2.286e-4 -1.03e-4 2.523e-4 -0.15582 -0.91468
 805500000 -0.12551 -0.91733 -1.56e-4 2.473e-4 -1.90e-4 2.332e-4 -0.15648 -0.91333
 805875000 -0.12384 -0.91522 -1.78e-4 2.151e-4 -1.61e-4 2.241e-4 -0.15781 -0.91175
 806250000 -0.12216 -0.91544 -2.32e-4 2.372e-4 -2.18e-4 2.251e-4 -0.15801 -0.90992
 806625000 -0.12123 -0.91739 -2.69e-4 2.073e-4 -2.57e-4 2.076e-4 -0.15776 -0.91010
 807000000 -0.12193 -0.91908 -2.36e-4 2.597e-4 -2.65e-4 2.520e-4 -0.15867 -0.90943
 807375000 -0.12268 -0.92126 -2.92e-4 2.516e-4 -2.76e-4 2.571e-4 -0.15788 -0.90901
 807750000 -0.12521 -0.92289 -2.80e-4 2.833e-4 -3.05e-4 3.050e-4 -0.15745 -0.91004
 808125000 -0.12764 -0.92338 -2.88e-4 2.718e-4 -2.96e-4 3.128e-4 -0.15850 -0.91058
 808500000 -0.13050 -0.92413 -2.42e-4 3.349e-4 -3.04e-4 3.783e-4 -0.15887 -0.91205
 808875000 -0.13385 -0.92328 -2.70e-4 3.743e-4 -3.38e-4 3.780e-4 -0.16197 -0.91389
 809250000 -0.13653 -0.92213 -3.21e-4 3.770e-4 -2.68e-4 3.548e-4 -0.16377 -0.91383
 809625000 -0.13915 -0.92120 -2.69e-4 3.274e-4 -2.74e-4 3.632e-4 -0.16583 -0.91430
 810000000 -0.14100 -0.91949 -2.89e-4 3.717e-4 -2.85e-4 3.493e-4 -0.16817 -0.91448
 810375000 -0.14253 -0.91773 -2.79e-4 3.541e-4 -2.89e-4 3.591e-4 -0.17044 -0.91425
 810750000 -0.14284 -0.91498 -2.78e-4 3.771e-4 -3.00e-4 4.060e-4 -0.17219 -0.91392
 811125000 -0.14209 -0.91351 -3.07e-4 3.625e-4 -2.71e-4 3.692e-4 -0.17528 -0.91363
 811500000 -0.14161 -0.91400 -3.10e-4 3.478e-4 -3.57e-4 3.385e-4 -0.17669 -0.91237
 811875000 -0.14062 -0.91449 -3.32e-4 3.728e-4 -3.74e-4 4.098e-4 -0.17872 -0.91181
 812250000 -0.14106 -0.91583 -3.27e-4 3.879e-4 -3.38e-4 4.136e-4 -0.18121 -0.91015
 812625000 -0.14241 -0.91808 -3.57e-4 3.645e-4 -3.18e-4 4.275e-4 -0.18161 -0.90888
 813000000 -0.14422 -0.91888 -3.80e-4 4.383e-4 -3.98e-4 4.834e-4 -0.18310 -0.90887
 813375000 -0.14703 -0.92041 -3.32e-4 4.139e-4 -3.52e-4 5.042e-4 -0.18453 -0.90699
 813750000 -0.14972 -0.92065 -3.66e-4 5.299e-4 -3.37e-4 5.333e-4 -0.18472 -0.90711
 814125000 -0.15184 -0.92059 -3.35e-4 5.440e-4 -3.10e-4 5.722e-4 -0.18487 -0.90624
 814500000 -0.15447 -0.92059 -3.09e-4 5.096e-4 -2.52e-4 5.258e-4 -0.18531 -0.90679
 814875000 -0.15660 -0.92023 -2.47e-4 5.858e-4 -2.02e-4 5.516e-4 -0.18637 -0.90711
 815250000 -0.15905 -0.91974 -1.94e-4 5.452e-4 -2.07e-4 5.359e-4 -0.18766 -0.90856
 815625000 -0.16130 -0.91937 -2.66e-4 5.549e-4 -2.23e-4 5.575e-4 -0.18911 -0.90919
 816000000 -0.16394 -0.91851 -2.19e-4 4.885e-4 -2.24e-4 5.292e-4 -0.19118 -0.91034
 816375000 -0.16517 -0.91706 -2.34e-4 4.905e-4 -2.52e-4 5.130e-4 -0.19329 -0.91091
 816750000 -0.16722 -0.91559 -2.27e-4 5.401e-4 -2.05e-4 5.087e-4 -0.19574 -0.91149
 817125000 -0.16819 -0.91460 -2.31e-4 5.201e-4 -2.19e-4 5.503e-4 -0.19883 -0.91114
 817500000 -0.16871 -0.91474 -2.17e-4 5.312e-4 -2.39e-4 5.608e-4 -0.20159 -0.91081
 817875000 -0.16929 -0.91430 -2.07e-4 5.458e-4 -1.70e-4 5.586e-4 -0.20365 -0.91108
 818250000 -0.17060 -0.91515 -2.25e-4 5.598e-4 -2.13e-4 5.774e-4 -0.20596 -0.91021
 818625000 -0.17172 -0.91583 -1.36e-4 5.558e-4 -1.83e-4 5.763e-4 -0.20843 -0.91004
 819000000 -0.17338 -0.91670 -1.82e-4 5.902e-4 -2.19e-4 5.762e-4 -0.21094 -0.90862
 819375000 -0.17639 -0.91768 -1.61e-4 5.454e-4 -1.51e-4 5.397e-4 -0.21235 -0.90822
 819750000 -0.17881 -0.91731 -1.74e-4 5.664e-4 -1.36e-4 5.598e-4 -0.21519 -0.90748
 820125000 -0.18170 -0.91765 -9.48e-5 5.635e-4 -7.78e-5 5.917e-4 -0.21672 -0.90620
 820500000 -0.18441 -0.91705 -1.48e-4 4.940e-4 -9.43e-5 5.390e-4 -0.21913 -0.90509
 820875000 -0.18685 -0.91675 -8.75e-5 5.321e-4 -1.27e-4 5.011e-4 -0.21978 -0.90430
 821250000 -0.18987 -0.91602 -8.79e-5 5.385e-4 -9.94e-5 5.108e-4 -0.22131 -0.90443
 821625000 -0.19133 -0.91505 -1.24e-4 5.128e-4 -1.42e-4 5.410e-4 -0.22246 -0.90364
 822000000 -0.19320 -0.91442 -1.12e-4 5.536e-4 -1.46e-4 5.697e-4 -0.22458 -0.90478
 822375000 -0.19451 -0.91352 -8.30e-5 5.015e-4 -1.61e-4 5.210e-4 -0.22570 -0.90455
 822750000 -0.19611 -0.91320 -1.04e-4 5.385e-4 -1.08e-4 5.201e-4 -0.22761 -0.90413
 823125000 -0.19781 -0.91338 -9.55e-5 5.779e-4 -9.57e-5 5.934e-4 -0.23026 -0.90466
 823500000 -0.19971 -0.91365 -8.10e-5 5.205e-4 -4.91e-5 5.240e-4 -0.23280 -0.90538
 823875000 -0.20259 -0.91381 -7.92e-5 5.143e-4 -8.41e-5 5.589e-4 -0.23533 -0.90539
 824250000 -0.20457 -0.91369 -1.01e-4 5.608e-4 -6.19e-5 5.681e-4 -0.23811 -0.90440
 824625000 -0.20782 -0.91396 -6.68e-5 5.738e-4 -6.15e-5 6.012e-4 -0.24073 -0.90472
 825000000 -0.20956 -0.91352 -3.76e-5 5.598e-4 -4.68e-5 6.241e-4 -0.24359 -0.90406
 825375000 -0.21323 -0.91340 -2.23e-5 6.091e-4 -2.51e-6 6.032e-4 -0.24570 -0.90369
 825750000 -0.21557 -0.91264 -1.94e-5 5.461e-4 -2.34e-5 5.890e-4 -0.24935 -0.90279
 826125000 -0.21851 -0.91228 3.227e-5 5.767e-4 4.335e-5 5.931e-4 -0.25104 -0.90277
 826500000 -0.22082 -0.91206 8.305e-5 5.766e-4 4.238e-5 5.320e-4 -0.25411 -0.90220
 826875000 -0.22326 -0.91169 1.018e-4 5.098e-4 1.036e-4 4.862e-4 -0.25663 -0.90150
 827250000 -0.22599 -0.91112 1.255e-4 5.091e-4 1.200e-4 5.587e-4 -0.25983 -0.90080
 827625000 -0.22898 -0.91094 7.364e-5 4.893e-4 1.004e-4 4.880e-4 -0.26222 -0.90020
 828000000 -0.23155 -0.91040 1.063e-4 4.726e-4 1.243e-4 4.947e-4 -0.26500 -0.89922
 828375000 -0.23440 -0.90962 9.540e-5 4.371e-4 1.326e-4 4.260e-4 -0.26747 -0.89894
 828750000 -0.23727 -0.90829 1.550e-4 4.111e-4 1.281e-4 4.123e-4 -0.27065 -0.89814
 829125000 -0.24053 -0.90779 1.072e-4 3.939e-4 1.472e-4 3.985e-4 -0.27380 -0.89722
 829500000 -0.24304 -0.90706 1.115e-4 4.060e-4 1.007e-4 4.543e-4 -0.27601 -0.89607
 829875000 -0.24594 -0.90644 7.696e-5 3.950e-4 1.649e-4 3.518e-4 -0.27923 -0.89594
 830250000 -0.24963 -0.90565 1.100e-4 3.624e-4 1.448e-4 3.393e-4 -0.28227 -0.89470
 830625000 -0.25285 -0.90440 1.046e-4 3.463e-4 8.863e-5 3.506e-4 -0.28465 -0.89355
 831000000 -0.25536 -0.90364 1.582e-4 2.992e-4 1.486e-4 2.590e-4 -0.28784 -0.89224
 831375000 -0.25868 -0.90211 2.258e-5 2.992e-4 7.456e-5 2.950e-4 -0.29078 -0.89124
 831750000 -0.26159 -0.90156 8.463e-5 3.258e-4 1.079e-4 2.791e-4 -0.29411 -0.89034
 832125000 -0.26435 -0.89991 7.620e-5 2.602e-4 8.055e-5 2.804e-4 -0.29691 -0.88840
 832500000 -0.26744 -0.89883 3.956e-5 2.431e-4 4.024e-5 2.680e-4 -0.29939 -0.88756
 832875000 -0.27056 -0.89784 4.926e-5 2.377e-4 4.542e-5 2.445e-4 -0.30282 -0.88647
 833250000 -0.27390 -0.89645 -5.04e-6 2.616e-4 5.946e-5 2.550e-4 -0.30592 -0.88446
 833625000 -0.27721 -0.89440 -1.68e-5 2.017e-4 3.285e-6 2.389e-4 -0.30966 -0.88326
 834000000 -0.28058 -0.89315 -3.54e-5 1.693e-4 -4.56e-5 2.463e-4 -0.31258 -0.88122
 834375000 -0.28369 -0.89159 -5.22e-5 1.900e-4 -8.99e-5 2.124e-4 -0.31537 -0.87934
 834750000 -0.28625 -0.88998 -1.18e-4 1.981e-4 -1.44e-4 2.001e-4 -0.31830 -0.87737
 835125000 -0.28872 -0.88807 -1.70e-4 2.322e-4 -1.70e-4 2.401e-4 -0.32141 -0.87593
 835500000 -0.29158 -0.88631 -1.68e-4 3.236e-4 -2.09e-4 3.379e-4 -0.32412 -0.87294
 835875000 -0.29445 -0.88465 -2.06e-4 3.763e-4 -2.16e-4 3.882e-4 -0.32715 -0.87082
 836250000 -0.29740 -0.88320 -2.04e-4 4.634e-4 -1.83e-4 5.269e-4 -0.32958 -0.86855
 836625000 -0.30057 -0.88191 -1.20e-4 5.601e-4 -8.48e-5 5.355e-4 -0.33125 -0.86656
 837000000 -0.30336 -0.88053 -6.91e-5 5.975e-4 -8.46e-5 5.653e-4 -0.33374 -0.86534
 837375000 -0.30694 -0.87895 2.442e-5 5.595e-4 6.630e-5 5.443e-4 -0.33593 -0.86384
 837750000 -0.31003 -0.87743 1.023e-4 5.505e-4 8.940e-5 5.624e-4 -0.33868 -0.86244
 838125000 -0.31415 -0.87546 1.896e-4 5.480e-4 1.611e-4 5.058e-4 -0.34111 -0.86155
 838500000 -0.31755 -0.87295 1.382e-4 4.903e-4 1.365e-4 5.025e-4 -0.34521 -0.86005
 838875000 -0.32192 -0.86981 2.288e-4 4.346e-4 1.962e-4 4.328e-4 -0.34814 -0.85865
 839250000 -0.32524 -0.86712 1.867e-4 4.539e-4 1.885e-4 4.380e-4 -0.35167 -0.85661
 839625000 -0.32852 -0.86303 2.254e-4 4.285e-4 2.234e-4 4.571e-4 -0.35502 -0.85456
 840000000 -0.33079 -0.85772 1.516e-4 4.458e-4 1.708e-4 4.592e-4 -0.35910 -0.85219
 840375000 -0.33118 -0.85384 1.894e-4 4.600e-4 1.985e-4 4.549e-4 -0.36325 -0.84917
 840750000 -0.33065 -0.85028 2.663e-4 5.083e-4 2.974e-4 4.897e-4 -0.36618 -0.84701
 841125000 -0.32837 -0.84965 3.528e-4 4.289e-4 3.794e-4 4.542e-4 -0.37042 -0.84265
 841500000 -0.32916 -0.85126 4.151e-4 4.109e-4 3.509e-4 4.306e-4 -0.37380 -0.83838
 841875000 -0.33236 -0.85247 3.954e-4 4.194e-4 4.547e-4 4.112e-4 -0.37674 -0.83439
 842250000 -0.33662 -0.85280 5.094e-4 3.779e-4 5.635e-4 3.589e-4 -0.38015 -0.82879
 842625000 -0.34207 -0.85264 6.102e-4 3.112e-4 6.048e-4 3.109e-4 -0.38061 -0.82221
 843000000 -0.34735 -0.85031 6.333e-4 2.336e-4 6.295e-4 2.821e-4 -0.37894 -0.81748
 843375000 -0.35327 -0.84825 6.683e-4 2.187e-4 6.796e-4 1.576e-4 -0.37762 -0.81352
 843750000 -0.35860 -0.84399 7.066e-4 4.207e-5 6.825e-4 4.779e-5 -0.37227 -0.81197
 844125000 -0.36364 -0.83872 7.331e-4 -6.14e-5 7.471e-4 -7.37e-5 -0.37184 -0.81405
 844500000 -0.36829 -0.83228 7.682e-4 -1.86e-4 7.264e-4 -1.92e-4 -0.37159 -0.81613
 844875000 -0.37069 -0.82405 7.554e-4 -3.21e-4 7.175e-4 -3.41e-4 -0.37550 -0.81979
 845250000 -0.37005 -0.81577 6.205e-4 -3.75e-4 6.281e-4 -3.98e-4 -0.37935 -0.82024
 845625000 -0.36689 -0.80880 5.962e-4 -5.91e-4 5.866e-4 -6.38e-4 -0.38491 -0.82058
 846000000 -0.36059 -0.80459 4.314e-4 -6.96e-4 3.876e-4 -7.13e-4 -0.39150 -0.81933
 846375000 -0.35375 -0.80548 3.182e-4 -7.45e-4 2.842e-4 -7.23e-4 -0.39723 -0.81697
 846750000 -0.35157 -0.81203 9.427e-5 -7.38e-4 9.489e-5 -6.70e-4 -0.40268 -0.81297
 847125000 -0.35478 -0.81711 1.403e-4 -5.76e-4 7.263e-5 -5.76e-4 -0.40816 -0.80872
 847500000 -0.36041 -0.82026 1.023e-4 -6.61e-4 1.064e-4 -6.14e-4 -0.41423 -0.80394
 847875000 -0.36713 -0.82073 1.413e-4 -6.36e-4 9.750e-5 -6.10e-4 -0.41805 -0.79796
 848250000 -0.37505 -0.81993 2.201e-4 -7.54e-4 1.798e-4 -7.77e-4 -0.42184 -0.79070
 848625000 -0.38186 -0.81667 2.340e-4 -9.39e-4 2.024e-4 -9.73e-4 -0.42431 -0.78149
 849000000 -0.38780 -0.81267 -1.66e-5 -1.08e-3 2.365e-5 -1.09e-3 -0.42560 -0.77288
 849375000 -0.39488 -0.80747 -9.07e-6 -1.35e-3 -8.08e-5 -1.37e-3 -0.42302 -0.76221
 849750000 -0.40081 -0.79935 -5.88e-4 -1.51e-3 -6.04e-4 -1.48e-3 -0.41617 -0.75514
 850125000 -0.40533 -0.78937 -9.89e-4 -1.56e-3 -1.03e-3 -1.55e-3 -0.40782 -0.75049
 850500000 -0.40647 -0.77717 -1.54e-3 -1.43e-3 -1.63e-3 -1.38e-3 -0.39831 -0.75100
 850875000 -0.40195 -0.76463 -1.95e-3 -7.22e-4 -1.99e-3 -7.53e-4 -0.39235 -0.75756
 851250000 -0.39100 -0.75496 -2.08e-3 -2.42e-4 -2.03e-3 -1.64e-4 -0.39182 -0.76569
 851625000 -0.37530 -0.75372 -2.06e-3 4.885e-4 -1.96e-3 5.787e-4 -0.39503 -0.77096
 852000000 -0.36534 -0.76287 -1.30e-3 8.239e-4 -1.26e-3 8.483e-4 -0.40139 -0.77669
 852375000 -0.36428 -0.77590 -1.02e-3 7.992e-4 -9.87e-4 8.062e-4 -0.40932 -0.77700
 852750000 -0.37011 -0.78582 -6.65e-4 7.753e-4 -6.12e-4 8.343e-4 -0.41599 -0.77778
 853125000 -0.38059 -0.79187 -5.41e-4 6.359e-4 -5.67e-4 6.437e-4 -0.42511 -0.77584
 853500000 -0.39288 -0.79249 -3.95e-4 5.223e-4 -3.70e-4 4.884e-4 -0.43168 -0.77146
 853875000 -0.40317 -0.78889 -4.24e-4 3.132e-4 -4.25e-4 3.265e-4 -0.44018 -0.76705
 854250000 -0.41328 -0.78319 -4.32e-4 2.446e-4 -3.78e-4 2.727e-4 -0.44505 -0.75948
 854625000 -0.42138 -0.77414 -5.21e-4 7.522e-5 -5.22e-4 9.270e-5 -0.44944 -0.75186
 855000000 -0.42761 -0.76230 -6.54e-4 2.261e-5 -6.17e-4 1.195e-5 -0.45465 -0.74192
 855375000 -0.42974 -0.74673 -9.60e-4 1.626e-5 -1.02e-3 2.085e-5 -0.45559 -0.72966
 855750000 -0.42348 -0.73024 -1.18e-3 2.049e-4 -1.17e-3 2.606e-4 -0.45241 -0.71730
 856125000 -0.40908 -0.71836 -1.53e-3 5.822e-4 -1.50e-3 6.285e-4 -0.44615 -0.70737
 856500000 -0.38848 -0.71668 -1.61e-3 0.001292 -1.58e-3 0.001308 -0.43312 -0.69503
 856875000 -0.37171 -0.72890 -8.17e-4 0.001964 -7.30e-4 0.001997 -0.41433 -0.69725
 857250000 -0.36857 -0.74640 -2.38e-4 0.001904 -1.78e-4 0.001886 -0.40210 -0.70267
 857625000 -0.37347 -0.76099 2.806e-4 0.001921 3.085e-4 0.001874 -0.38990 -0.71960
 858000000 -0.38428 -0.77109 7.338e-4 0.001256 7.564e-4 0.001227 -0.39403 -0.73578
 858375000 -0.39732 -0.77476 7.691e-4 8.952e-4 7.820e-4 8.689e-4 -0.39962 -0.74937
 858750000 -0.40864 -0.77374 7.162e-4 6.226e-4 7.090e-4 6.300e-4 -0.41229 -0.75839
 859125000 -0.41879 -0.77067 5.942e-4 5.780e-4 6.429e-4 5.806e-4 -0.42404 -0.76216
 859500000 -0.42627 -0.76522 6.652e-4 3.671e-4 6.677e-4 3.858e-4 -0.43620 -0.76289
 859875000 -0.43247 -0.75851 5.174e-4 2.214e-4 5.110e-4 1.812e-4 -0.44752 -0.76157
 860250000 -0.43668 -0.75089 4.302e-4 1.729e-4 4.352e-4 1.947e-4 -0.45885 -0.75735
 860625000 -0.43603 -0.74111 4.208e-4 1.742e-4 4.093e-4 1.709e-4 -0.46693 -0.75161
 861000000 -0.43073 -0.73416 3.535e-4 1.870e-5 3.456e-4 2.608e-5 -0.47506 -0.74569
 861375000 -0.42191 -0.73283 3.863e-4 1.339e-4 3.887e-4 7.371e-5 -0.48154 -0.73531
 861750000 -0.41456 -0.73934 2.644e-4 6.825e-5 2.650e-4 2.782e-5 -0.48323 -0.72677
 862125000 -0.41297 -0.75027 2.020e-4 -3.08e-5 2.390e-4 -2.21e-5 -0.48418 -0.71594
 862500000 -0.41859 -0.76141 1.132e-4 9.054e-5 1.595e-4 4.410e-5 -0.47603 -0.70787
 862875000 -0.42801 -0.77024 8.918e-5 1.042e-4 7.649e-5 1.135e-4 -0.46622 -0.70625
 863250000 -0.44158 -0.77448 2.121e-4 1.269e-4 1.807e-4 7.759e-5 -0.45736 -0.71296
 863625000 -0.45481 -0.77428 2.328e-5 1.417e-4 5.913e-5 1.603e-4 -0.45711 -0.72701
 864000000 -0.46684 -0.77146 2.067e-4 1.585e-4 1.825e-4 1.228e-4 -0.46408 -0.73838
 864375000 -0.47735 -0.76719 1.691e-4 1.750e-4 1.818e-4 1.545e-4 -0.47673 -0.74544
 864750000 -0.48635 -0.76225 1.486e-4 1.459e-4 1.849e-4 1.963e-4 -0.49001 -0.74882
 865125000 -0.49452 -0.75542 2.544e-4 1.403e-4 2.163e-4 1.760e-4 -0.50318 -0.74712
 865500000 -0.50053 -0.74796 2.286e-4 1.267e-4 2.345e-4 1.256e-4 -0.51431 -0.74443
 865875000 -0.50438 -0.74078 2.343e-4 1.640e-4 2.402e-4 1.064e-4 -0.52581 -0.74098
 866250000 -0.50387 -0.73506 2.860e-4 1.527e-4 2.583e-4 1.471e-4 -0.53492 -0.73571
 866625000 -0.50235 -0.73477 2.619e-4 1.265e-4 2.871e-4 1.533e-4 -0.54392 -0.73079
 867000000 -0.50519 -0.73919 3.032e-4 2.138e-4 3.375e-4 2.032e-4 -0.55218 -0.72432
 867375000 -0.51369 -0.74242 3.673e-4 1.841e-4 3.394e-4 2.035e-4 -0.55973 -0.71823
 867750000 -0.52466 -0.74237 3.399e-4 1.131e-4 3.615e-4 1.349e-4 -0.56697 -0.71227
 868125000 -0.53468 -0.74026 3.429e-4 1.638e-4 3.205e-4 1.382e-4 -0.57334 -0.70524
 868500000 -0.54593 -0.73643 4.035e-4 1.610e-4 4.122e-4 1.515e-4 -0.57870 -0.69779
 868875000 -0.55533 -0.73135 4.663e-4 1.067e-4 4.321e-4 1.190e-4 -0.58224 -0.69242
 869250000 -0.56428 -0.72564 5.108e-4 1.615e-4 4.705e-4 1.035e-4 -0.58608 -0.68742
 869625000 -0.57231 -0.71975 5.053e-4 7.764e-5 5.549e-4 1.127e-4 -0.58896 -0.68594
 870000000 -0.58073 -0.71357 5.990e-4 4.674e-5 6.055e-4 9.869e-6 -0.59655 -0.68360
 870375000 -0.58740 -0.70728 6.247e-4 -1.11e-6 6.033e-4 -2.58e-5 -0.60481 -0.68169
 870750000 -0.59516 -0.70080 5.479e-4 -9.25e-5 5.626e-4 -1.21e-4 -0.61484 -0.67807
 871125000 -0.60153 -0.69443 5.961e-4 -1.23e-4 5.752e-4 -1.17e-4 -0.62413 -0.67164
 871500000 -0.60787 -0.68828 5.903e-4 -1.12e-4 5.843e-4 -1.08e-4 -0.63340 -0.66537
 871875000 -0.61476 -0.68444 6.213e-4 -8.25e-5 5.792e-4 -1.28e-4 -0.64135 -0.65906
 872250000 -0.62355 -0.67882 6.080e-4 -7.01e-5 6.021e-4 -6.40e-5 -0.64980 -0.65048
 872625000 -0.63236 -0.67246 6.292e-4 -6.79e-5 6.420e-4 -1.31e-4 -0.65806 -0.64285
 873000000 -0.64117 -0.66558 6.960e-4 -1.76e-4 6.582e-4 -1.43e-4 -0.66553 -0.63488
 873375000 -0.64980 -0.65756 7.289e-4 -1.76e-4 7.222e-4 -1.87e-4 -0.67305 -0.62676
 873750000 -0.65791 -0.64947 7.654e-4 -2.01e-4 7.762e-4 -2.44e-4 -0.68117 -0.61851
 874125000 -0.66574 -0.64066 8.143e-4 -2.60e-4 8.018e-4 -3.00e-4 -0.68871 -0.60975
 874500000 -0.67398 -0.63181 7.817e-4 -3.80e-4 8.015e-4 -3.32e-4 -0.69658 -0.60127
 874875000 -0.68179 -0.62278 7.448e-4 -4.28e-4 7.713e-4 -4.82e-4 -0.70345 -0.59173
 875250000 -0.69078 -0.61330 7.458e-4 -5.37e-4 7.109e-4 -4.95e-4 -0.71174 -0.58110
 875625000 -0.69790 -0.60326 6.201e-4 -5.08e-4 6.470e-4 -5.67e-4 -0.71841 -0.57125
 876000000 -0.70537 -0.59356 5.927e-4 -4.86e-4 5.509e-4 -4.79e-4 -0.72562 -0.56123
 876375000 -0.71245 -0.58355 6.649e-4 -4.45e-4 5.991e-4 -4.78e-4 -0.73355 -0.55136
 876750000 -0.72055 -0.57377 6.442e-4 -5.16e-4 6.710e-4 -5.19e-4 -0.74123 -0.54051
 877125000 -0.72941 -0.56294 6.416e-4 -6.17e-4 6.717e-4 -6.16e-4 -0.74893 -0.52890
 877500000 -0.73779 -0.55153 6.482e-4 -7.40e-4 6.555e-4 -6.75e-4 -0.75645 -0.51699
 877875000 -0.74596 -0.53860 6.571e-4 -8.38e-4 6.245e-4 -8.38e-4 -0.76428 -0.50452
 878250000 -0.75427 -0.52540 5.029e-4 -1.09e-3 4.921e-4 -1.11e-3 -0.77200 -0.49068
 878625000 -0.76238 -0.51153 2.934e-4 -1.35e-3 2.763e-4 -1.42e-3 -0.77954 -0.47695
 879000000 -0.76934 -0.49504 -2.80e-4 -1.77e-3 -3.00e-4 -1.77e-3 -0.78662 -0.46095
 879375000 -0.77384 -0.47775 -1.57e-3 -2.14e-3 -1.63e-3 -2.13e-3 -0.79257 -0.44513
 879750000 -0.77213 -0.46248 -4.03e-3 -8.49e-4 -4.12e-3 -6.16e-4 -0.79715 -0.42671
 880125000 -0.77250 -0.45722 -4.08e-3 0.003753 -3.89e-3 0.004009 -0.79822 -0.40882
 880500000 -0.78416 -0.45201 4.580e-4 0.005932 7.480e-4 0.005728 -0.79332 -0.39364
 880875000 -0.79734 -0.43834 0.003796 0.003034 0.003828 0.002699 -0.78991 -0.39074
 881250000 -0.80964 -0.42129 0.003271 1.339e-4 0.003173 4.084e-5 -0.80180 -0.38899
 881625000 -0.81968 -0.40209 0.001951 -6.87e-4 0.001900 -6.57e-4 -0.81764 -0.37607
 882000000 -0.82890 -0.38090 0.001059 -7.54e-4 0.001030 -7.34e-4 -0.83054 -0.35838
 882375000 -0.83638 -0.35813 5.270e-4 -6.86e-4 4.916e-4 -7.00e-4 -0.84194 -0.33778
 882750000 -0.84096 -0.33194 -7.65e-5 -7.07e-4 -1.75e-4 -6.87e-4 -0.85039 -0.31592
 883125000 -0.83445 -0.30256 -1.18e-3 -5.21e-4 -1.22e-3 -4.76e-4 -0.85835 -0.29304
 883500000 -0.81545 -0.29471 -2.44e-3 0.001205 -2.47e-3 0.001463 -0.86489 -0.26789
 883875000 -0.83026 -0.30416 -9.99e-4 0.003331 -8.66e-4 0.003235 -0.87028 -0.24053
 884250000 -0.85533 -0.28337 3.956e-4 0.003057 4.280e-4 0.003038 -0.87203 -0.21016
 884625000 -0.87038 -0.25452 0.001074 0.002795 0.001121 0.002682 -0.86458 -0.17574
 885000000 -0.87967 -0.22292 0.001736 0.001907 0.001745 0.001783 -0.83513 -0.15795
 885375000 -0.88536 -0.18884 9.698e-4 0.001121 8.437e-4 0.001151 -0.84079 -0.18148
 885750000 -0.88194 -0.14933 7.343e-4 0.001786 8.087e-4 0.001850 -0.87707 -0.15781
 886125000 -0.85782 -0.13479 0.002345 0.001122 0.002383 8.521e-4 -0.89288 -0.11850
 886500000 -0.88593 -0.12814 0.001145 -1.46e-3 9.958e-4 -1.39e-3 -0.89971 -0.07982
 886875000 -0.90159 -0.08396 -1.52e-4 -2.06e-3 -1.46e-4 -2.10e-3 -0.90219 -0.03971
 887250000 -0.90525 -0.04047 -1.15e-3 -3.35e-3 -1.17e-3 -3.38e-3 -0.90198 0.002047
 887625000 -0.90497 0.003949 -2.63e-3 -5.52e-3 -2.77e-3 -5.58e-3 -0.89817 0.045499
 888000000 -0.90070 0.050830 -5.27e-3 -8.66e-3 -5.38e-3 -8.80e-3 -0.89106 0.091768
 888375000 -0.89225 0.101659 -9.96e-3 -0.01312 -0.01010 -0.01329 -0.87947 0.141498
 888750000 -0.87716 0.156245 -0.01803 -0.01906 -0.01835 -0.01927 -0.86099 0.196087
 889125000 -0.85340 0.214993 -0.03248 -0.02616 -0.03292 -0.02644 -0.83124 0.254295
 889500000 -0.81322 0.276524 -0.05802 -0.03190 -0.05882 -0.03200 -0.78509 0.312107
 889875000 -0.75365 0.331455 -0.10024 -0.02835 -0.10160 -0.02772 -0.71733 0.364868
 890250000 -0.66762 0.362787 -0.16091 0.007082 -0.16228 0.009812 -0.62203 0.384773
 890625000 -0.58747 0.340408 -0.20411 0.100081 -0.20368 0.105262 -0.53808 0.345046
 891000000 -0.56080 0.294176 -0.17699 0.218795 -0.17351 0.221766 -0.52010 0.282156
 891375000 -0.57689 0.283488 -0.09278 0.297320 -0.08853 0.297156 -0.55165 0.264664
 891750000 -0.58931 0.312812 5.046e-4 0.328533 0.003931 0.326843 -0.57678 0.295024
 892125000 -0.57962 0.361764 0.084348 0.333145 0.086252 0.330749 -0.57473 0.347658
 892500000 -0.54825 0.414942 0.159997 0.324999 0.161327 0.322768 -0.54735 0.404131
 892875000 -0.49802 0.463921 0.232781 0.307680 0.233039 0.305897 -0.50034 0.455917
 893250000 -0.43217 0.502796 0.304965 0.279077 0.305512 0.277800 -0.43665 0.498425
 893625000 -0.35579 0.528083 0.375364 0.238277 0.375885 0.237148 -0.36075 0.524891
 894000000 -0.27242 0.536273 0.442291 0.181577 0.442749 0.181025 -0.27690 0.536033
 894375000 -0.18722 0.527232 0.501274 0.109708 0.502470 0.108271 -0.19186 0.526833
 894750000 -0.10781 0.499900 0.547146 0.022031 0.548796 0.020556 -0.11113 0.500847
 895125000 -0.03571 0.458588 0.576626 -0.07733 0.577939 -0.08026 -0.03879 0.457992
 895500000 0.023158 0.403470 0.585051 -0.18548 0.586184 -0.18835 0.018585 0.402920
 895875000 0.064558 0.340654 0.570067 -0.29589 0.569705 -0.29965 0.059948 0.339878
 896250000 0.089150 0.277470 0.532660 -0.40136 0.531334 -0.40557 0.084924 0.277463
 896625000 0.098470 0.218923 0.474197 -0.49825 0.472172 -0.50228 0.094769 0.216723
 897000000 0.097627 0.167774 0.399760 -0.58131 0.396071 -0.58444 0.091383 0.163525
 897375000 0.089068 0.126056 0.312252 -0.64676 0.307907 -0.64942 0.080910 0.121448
 897750000 0.078172 0.092619 0.218899 -0.69595 0.213944 -0.69799 0.067356 0.088092
 898125000 0.065952 0.066227 0.121110 -0.72928 0.116235 -0.72967 0.052611 0.064275
 898500000 0.053392 0.045867 0.022747 -0.74666 0.017756 -0.74679 0.040840 0.044861
 898875000 0.041548 0.031069 -0.07600 -0.75027 -0.08080 -0.74978 0.028944 0.029614